240
Lattice="10.218000412 0.0 0.0 0.0 8.848999977 0.0 0.0 0.0 34.450000763" Properties=species:S:1:pos:R:3:initial_charges:R:1:forces:R:3 NELECT0=1240.0 NELECT=1240.0 head=m05 stress="-0.022844285408262027 0.00035022980158068727 0.0012106780081658276 0.00035022980158068727 -0.01784748299829891 -0.002344367001263885 0.0012106780081658276 -0.002344367001263885 -0.048418806636477414" free_energy=-4469.49892226 energy=-4469.36689731 pbc="T T T"
Au       0.19726000       0.49260000       0.71999000      67.92022800       0.68467100      -0.73272800      -1.59962500
Au       0.10998000       3.36421000       0.77152000      67.92492000       0.81716400       0.19005500      -1.75923600
Au       0.15970000       6.31918000       0.58129000      67.80299100       0.23419100      -0.12137500      -1.05857300
Au       5.10171000       0.32907000       0.69050000      67.91860700       0.33427800       0.12800300      -1.63558200
Au       5.12650000       3.31308000       0.70060000      67.89608000       0.21658900       0.10735500      -0.82945700
Au       5.25446000       6.27045000       0.66420000      67.88485700      -0.34045100      -0.12194700      -0.86458900
Au       0.13662000       0.25580000       7.17765000      67.99914600       0.20225100       0.91684700      -0.60440500
Au       0.03051000       3.25756000       7.05346000      68.00075100       0.80078600       0.16243500      -0.62501100
Au       0.12005000       6.25498000       7.09428000      68.01829300       0.33083900      -0.83726200       0.18370900
Au       5.40102000       0.34743000       7.09942000      68.01560300      -0.42348300      -0.27199500      -0.36771100
Au       5.27770000       3.12043000       7.06307000      68.00986300       0.30522000       1.00851900       0.35387300
Au       5.37698000       6.21924000       7.05762000      67.99962400      -0.65357000       0.43203300      -0.44517900
Au       1.92986000       0.22024000       2.95171000      68.01619900      -0.49817000       0.27353700      -0.89353700
Au       1.81459000       3.17021000       2.95958000      68.01177000       0.46389900       0.47758900      -0.73647400
Au       1.74882000       6.19878000       2.84137000      68.00510200       0.45506400      -0.10717300       0.10006700
Au       7.02864000       0.46042000       2.71712000      68.02701400      -0.26112100      -0.73444100      -0.66251300
Au       6.99264000       3.28075000       2.75477000      68.03332400      -0.76052700       0.73673000      -0.51055600
Au       6.90475000       6.21954000       2.79966000      68.03079200       0.15538100       0.71640400      -0.02361900
Au       1.90399000       0.44140000       9.22947000      68.03469400      -0.20062700       0.18027100      -0.13348800
Au       1.88128000       3.31253000       9.16837000      68.02224400      -0.68790600      -0.14379000       1.20172000
Au       1.90173000       6.22920000       9.23832000      68.01768700      -0.31847000      -0.08417900      -0.18636900
Au       7.05388000       0.39979000       9.21792000      68.03438600      -0.07651800      -0.20367900       0.51689100
Au       6.96712000       3.25416000       9.20715000      68.02700000      -0.16303600       0.72841700       0.76320800
Au       6.93368000       6.33545000       9.18817000      68.01224200       0.31516500      -0.56867800      -0.23785400
Au       3.67230000       0.31828000       4.97994000      68.02099300       0.12312100       0.60072700       0.63809800
Au       3.63803000       3.25797000       5.04395000      68.00705800      -0.49018000       0.23290400      -0.98051800
Au       3.52042000       6.20081000       5.01495000      68.00867400       0.39559900       0.05443500      -0.50425600
Au       8.78910000       0.34643000       4.86655000      68.00500900      -0.47077800      -0.33308400       1.26271800
Au       8.59287000       3.29545000       4.85493000      68.01464100       1.03201100       0.22786700       0.82862000
Au       8.66319000       6.25888000       4.89993000      68.00670500      -0.10455800       0.10931100       0.12764000
Au       3.63039000       0.41254000      11.29780000      67.94858000      -0.03244100      -0.26114300       1.97719900
Au       3.57638000       3.24012000      11.27340000      67.98674400      -0.19988800       0.51026600       1.56415600
Au       3.53476000       6.38748000      11.38500000      68.00153900      -0.01491200      -0.31202900       1.14867100
Au       8.70647000       0.42150000      11.34950000      67.85311700       0.05065300      -0.32674100       1.34191700
Au       8.69863000       3.35148000      11.46460000      67.80222800      -0.90692500      -0.17862900       1.27236100
Au       8.61236000       6.28371000      11.30300000      67.74419400       0.09962700      -0.13043600       2.05594900
Au       4.44277000       1.82535000       2.89510000      68.04187700       0.13281100       0.24913100      -0.27438000
Au       4.40904000       4.80524000       2.90836000      68.00604200      -0.27463100      -0.05190900      -0.52565500
Au       4.40167000       7.78348000       2.85910000      68.02323400       0.23273800      -1.04042100      -0.37813100
Au       9.51805000       1.75539000       2.81428000      68.03189300       0.38669500       0.75690900       0.11072400
Au       9.45988000       4.78557000       2.80698000      68.03385800       0.32254700       0.39398200       0.01269100
Au       9.51901000       7.70047000       2.77525000      68.02451500      -0.06777400      -0.13432200      -0.27571400
Au       4.52130000       1.81284000       9.23085000      68.03925700      -0.18406700      -0.01909100      -0.10871900
Au       4.38878000       4.80444000       9.10633000      68.02841500       0.01302200      -0.16342100       0.48764600
Au       4.38849000       7.76649000       9.18213000      68.03759300       0.27403800      -0.37637100       0.03612500
Au       9.53861000       1.93321000       9.23928000      68.03616900       0.50877300      -0.81613400       0.77046700
Au       9.46156000       4.68327000       9.18876000      68.01134000       0.32390500       0.81935400       0.58239300
Au       9.57296000       7.65151000       9.18780000      68.01617200      -0.67098200       0.14148400       0.80086700
Au       1.03022000       1.74542000       5.00081000      68.01407100      -0.66362500      -0.19549500       0.18877400
Au       0.97043000       4.74017000       4.95439000      68.00191300      -0.30304500      -0.15790400       0.29021200
Au       1.02414000       7.64815000       5.05552000      68.01352300      -0.42200300       0.21115000      -1.02336300
Au       6.30652000       1.85075000       4.91278000      68.01901100      -0.91926100      -0.70435900       0.24862700
Au       6.13595000       4.73133000       4.98640000      68.00925400      -0.06745000       0.08948000      -0.33376900
Au       6.16226000       7.78776000       4.87584000      67.99625100       0.23790500      -0.17945100       0.28067400
Au       0.96328000       1.82616000      11.55450000      68.09125600       0.46573500       0.18754000       1.01155800
Au       0.78962000       4.78542000      11.41440000      68.09702800       1.27608300       0.21083800       1.75710200
Au       1.02848000       7.82150000      11.24620000      67.87742100      -0.04310800      -0.19132300       2.02888000
Au       6.16827000       1.84823000      11.52870000      67.92677800       0.23579600       0.07709400       0.33284500
Au       5.93030000       4.85789000      11.31480000      67.84755300       0.44918900      -0.40189500       1.08005500
Au       6.20012000       7.69128000      11.34520000      67.84744900      -0.41274400       0.61673700       1.50423300
Au       2.68244000       1.82737000       0.76428000      67.83630400      -0.08398200      -0.29354300      -1.51292600
Au       2.65577000       4.69467000       0.73516000      67.78941800      -0.07212000       0.05116200      -1.19583700
Au       2.68259000       7.60326000       0.70181000      67.78019100      -0.03259000       0.31696100      -1.48984200
Au       7.90296000       2.04141000       0.62969000      68.20109700      -0.48785000      -0.34512800      -3.27769900
Au       7.80325000       4.92581000       0.67536000      68.00417800      -0.13682200      -0.13784500      -1.49717100
Au       7.93715000       7.85381000       0.55780000      68.12266700      -0.60769300       0.32023100      -2.13535900
Au       2.64605000       1.82693000       7.05981000      68.00865500       0.56841000      -0.32274200       0.53599700
Au       2.63318000       4.73863000       7.08631000      68.01289400       0.08361700       0.30633200      -0.34094400
Au       2.77013000       7.76059000       7.01843000      68.00820500      -0.04914400      -0.13114100       1.46295400
Au       7.86928000       1.85960000       7.09511000      68.02446900       0.28444800      -0.39105200      -0.44000000
Au       7.86198000       4.82562000       7.05122000      68.01200600      -0.40639200      -0.25034700       0.28258600
Au       7.85656000       7.76417000       7.02608000      68.00728200      -0.06577700       0.01513900       0.03263300
O        1.34768000       3.51457000      18.50400000       0.79458200       1.88804900      -0.83871800       0.44059300
O        9.24287000       3.15005000      20.52350000       0.74402600       0.08492500       0.37630400      -1.22243700
O        3.89279000       6.52865000      14.50150000       0.63244800       2.08664700       1.72107900       2.06512100
O        2.37971000       3.45287000      27.00730000       0.70283700      -0.42258900       0.79168700       0.62883300
O        2.16202000       6.09380000      18.90560000       0.65333400       0.13828100       1.01404600      -0.50759300
O        4.15900000       2.22548000      18.61100000       0.70994100      -1.45595600      -0.60748800       0.03040000
O        5.12217000       2.63162000      14.29370000       0.64322800       1.36259500      -0.17512300       1.11291600
O        7.72290000       4.48435000      14.37080000       0.65520000       1.20041200       1.98216500       1.98592700
O        9.44509000       1.50168000      15.03180000       0.71048300      -2.59274800      -0.87719100      -0.51439600
O        6.78973000       0.22850000      14.33970000       0.70880700      -0.15260800      -1.08217000      -0.77743500
O        0.19033000       0.34772000      17.65040000       0.68535900       1.27559600      -0.97734200      -1.13002000
O       10.17920000       5.94870000      21.31320000       0.74036400       1.19258700       0.89692600       0.25697400
O        1.45068000       0.32723000      25.19060000       0.66290800      -1.38259800      -0.16769600      -0.35997700
O        2.16245000       4.91001000      13.39860000       0.95383400      -0.27992400       0.32996000      -0.71223800
O        4.73368000       0.88568000      20.93960000       0.74996000      -0.01045500       0.36142900       0.72240700
O        6.64708000       6.66925000      15.35380000       0.73908800      -1.93077800      -0.87864500       1.83542300
O        9.80829000       1.93233000      23.87610000       1.00212800       0.11776000       0.20080500      -0.60991900
O        5.59863000       5.00187000      23.29610000       0.71548000      -0.74601200       0.29202600       0.23222400
O        9.73093000       7.51617000      14.46480000       0.68337600       1.41872600      -0.25668100       2.61227300
O        8.95122000       7.90788000      19.90650000       0.69075100       0.62285900      -0.48169400      -0.32974500
O        6.26891000       6.48087000      28.82790000       0.73861200       1.68949200       0.64269200       0.15222400
O        6.01315000       6.03109000      32.08280000       0.70265400      -0.89658900      -0.03790200      -0.36498900
O        7.75886000       0.54854000      22.16650000       0.75180200      -2.05098800       0.08204900      -1.04955500
O        1.84243000       7.41411000      29.21730000       0.66974200      -0.70528600      -0.04614000       0.31453700
O        8.74419000       4.86166000      29.38960000       0.64922000      -0.87654800       1.48069700      -0.32861900
O       10.15750000       4.97857000      16.32310000       0.73115900       0.78243400      -0.10044700      -0.49829700
O        0.02874000       1.55722000      31.77970000       0.69354900       1.56304800      -0.40980100      -0.62762000
O        4.65238000       6.61930000      19.92050000       0.71071800       0.09961300       1.23927700      -1.55595800
O        3.89229000       4.24528000      21.59220000       0.73257400       0.78619900       1.05768100       0.09513500
O        6.39498000       0.36216000      29.95810000       0.70481000      -0.06329600      -0.19908100       0.79236200
O        1.92634000       2.79412000      22.23290000       0.69180800       0.72710900      -0.44660100      -1.58664100
O        7.66760000       0.79754000      26.29550000       0.70489400       0.58895900      -0.80302600      -1.00314400
O        7.27671000       8.59197000      32.91580000       1.12881900      -0.19041400      -0.85789600       1.12100800
O        7.07254000       6.45618000      18.42280000       0.65990700       0.27951300       0.77533900      -0.21920300
O        5.43021000       3.27816000      32.01810000       0.69359800      -0.65620100      -0.22303800      -1.08688200
O        3.68625000       1.33384000      16.07440000       0.68873400       1.19224200      -0.73246600       0.01621000
O        2.45081000       3.40253000      31.83510000       0.73899800      -1.03764700       1.24935900       1.99851100
O        0.60168000       7.73140000      32.12460000       0.73446900       1.04317100       0.43366500      -1.58971900
O        1.78014000       7.20203000      16.57720000       0.65190900      -1.87734800      -0.22041900      -0.56052300
O        9.04510000       2.15917000      29.22910000       0.74704600       0.38715600      -0.15316100      -1.43642000
O        3.36075000       6.23853000      32.24360000       0.60776700       1.35865400       2.03308500      -1.88685400
O        6.35558000       3.05851000      27.53350000       0.70170300      -0.16269400      -0.43162900       0.29805000
O        8.92403000       5.49603000      32.31580000       0.73792400      -0.88486200       2.16424100      -3.37079400
O        6.69996000       3.88823000      19.37420000       0.69310000       0.18714500      -0.61249100       1.38381300
O        4.76933000       3.35264000      25.26720000       0.67475500      -0.19997000       0.46869800      -0.40414200
O        1.40092000       0.99028000      27.90170000       0.58668200       0.04690200       1.02184500       2.44699600
O        0.35192000       5.62154000      27.40020000       0.65468500      -0.87439800       1.72343300      -1.25081000
O        7.85741000       2.30628000      32.90260000       1.09378300       0.34502300       0.15664300       0.48008400
O        8.09783000       2.39676000      17.68680000       0.69304200       0.57208800       0.15003800      -1.71321000
O        6.02431000       7.79707000      23.84440000       0.73102500       2.00435400      -0.07555200       0.07074000
O        4.36874000       4.43502000      29.39950000       0.69551800      -0.81478200       0.53833300       0.00812900
O        1.69834000       1.96177000      14.09680000       0.76574500      -0.31970900       1.96098700       0.76467500
O        4.26795000       0.88924000      24.30700000       0.63608000      -0.71654700       1.89517500      -0.61038000
O        3.47700000       0.38493000      32.00240000       0.66577000      -1.97142100       1.12254100       1.33575900
O       10.11480000       6.79308000      24.61950000       0.68475200       0.83020100       0.30632700       1.09255900
O        7.49878000       6.98451000      26.15880000       0.72338400       0.95449400       0.20522800       0.38350100
H        1.13699000       3.38970000      17.57650000       0.59194200      -0.36983000      -0.15903400      -0.34342700
H        2.16179000       2.92143000      18.60780000       0.61889500      -1.06296200       0.84115500      -0.02477100
H        9.41755000       2.95836000      19.55670000       0.64669500      -0.28631400       0.09760900       0.99645400
H        9.99491000       2.81172000      21.01700000       0.60289100      -0.04102000      -0.51527700       0.22139800
H        3.48446000       5.74042000      14.11700000       0.69949400      -1.60732800      -1.43922300      -1.12090600
H        3.81677000       7.23182000      13.82990000       0.61003800       0.07047600      -0.22869900      -0.14960300
H        2.75397000       3.65541000      27.89620000       0.63538200       0.64829900      -0.18931500      -0.90997700
H        3.11335000       3.44626000      26.32290000       0.66819500      -0.13892500      -0.04240400       0.71391500
H        2.04847000       5.13175000      18.82000000       0.67472200      -0.26698100      -0.60960700      -0.12111500
H        3.07461000       6.28005000      19.24150000       0.66390600       0.05925000       0.01331200       0.01148900
H        4.78978000       2.92462000      18.63780000       0.62874900       1.27683200       1.03606800       0.09897700
H        4.26743000       1.75349000      19.45940000       0.66596800       0.20352300      -0.21755700       0.01389200
H        4.80787000       3.08110000      13.49150000       0.62023500      -0.83710800      -0.47614600       0.20268100
H        4.48408000       2.11917000      14.90530000       0.67677500      -0.13371700       0.85525200      -0.94991300
H        6.95823000       3.91423000      14.33360000       0.70852500      -1.87459200      -1.47497300      -0.13727400
H        7.47740000       5.41783000      14.70070000       0.67245700      -0.19270200      -0.94213100      -0.39405000
H        0.04920000       1.85161000      14.69090000       0.65466800       2.83574200       0.49228600      -0.82978300
H        8.82381000       1.72003000      14.28590000       0.57881600       0.37069000      -0.45893000       0.80666900
H        6.19953000       1.01655000      14.35330000       0.66160700      -0.09535600       0.06931300       0.15044900
H        6.78988000       8.83978000      13.33470000       0.56681700       0.05184000       0.25854800       1.28367500
H        9.93135000       8.75215000      18.35240000       0.65342300      -0.68387000      -0.11649500       0.99413900
H        9.75570000       0.87987000      17.16990000       0.66184700      -0.43372900       0.46860000       0.05059900
H        0.90496000       5.97735000      21.07440000       0.60578200      -0.24573300       0.22932300      -0.00176600
H        9.95427000       5.03872000      21.15260000       0.66535300      -0.89752200      -1.29205600      -0.37053500
H        0.61921000       0.80095000      24.77760000       0.58739900       1.31527300      -0.21687800       0.46878100
H        7.10008000       3.25691000      18.70520000       0.68090900       0.44625700      -0.14351100      -1.11632000
H        8.08403000       4.63190000      13.46380000       0.63667300       0.61439400      -0.27725700      -2.17210600
H        6.59958000       7.65942000      15.15270000       0.69456200       0.47326100       2.07718700      -1.33809500
H        4.67993000       1.09891000      21.89460000       0.63646900      -0.08838000      -0.21244700      -0.24705800
H        4.60252000       8.77945000      20.89390000       0.62515500       0.08229900      -0.33987400      -0.14190400
H        6.66541000       6.61128000      16.36300000       0.67791900       0.54971700      -0.04584900       0.17986500
H        5.65570000       6.38836000      15.15300000       0.66457000      -0.33789700       0.26406800      -0.85998900
H        7.84172000       5.21303000      29.12370000       0.69307000      -0.65058200      -0.09362700      -0.28665500
H        2.38956000       2.11518000      22.72020000       0.70513000       0.02741800      -1.39593400       0.93266400
H        5.30221000       4.37402000      24.06210000       0.65935000       0.27268200       0.87393800      -0.49227900
H        5.62905000       5.96132000      23.57080000       0.63934700       0.12119500      -0.88093700      -0.07826600
H        9.43362000       7.35700000      13.58120000       0.65610100      -1.15886500      -1.19759600      -3.75597600
H        0.49599000       7.49701000      14.40560000       0.63765000       0.76175500      -0.71819800      -0.55841000
H        9.52419000       7.20939000      20.33460000       0.65312500      -0.73083800       0.45620100      -0.04753000
H        8.75179000       8.55877000      20.60450000       0.65885300      -0.25345200       0.01373700       0.16207700
H        6.48671000       7.37356000      29.24000000       0.63691400      -0.46863100      -0.70888300      -0.28869300
H        6.81105000       6.48218000      27.99960000       0.61590200      -0.90721800       0.16851300      -0.15780800
H        6.38960000       5.13696000      32.21290000       0.63883300      -0.39249700       0.16332100       0.11350000
H        6.42814000       6.63285000      32.73980000       0.65521300       0.32378700       0.53471400      -0.24670400
H        6.94372000       0.98130000      21.75920000       0.58141500       1.57585500      -0.68089000       0.59870700
H        8.20965000       1.22875000      22.69560000       0.65626700       0.99986000       0.50223800       0.63309100
H        1.81626000       8.37102000      28.90840000       0.71021300      -0.78038500       1.39553200      -0.91175500
H        1.30194000       6.79325000      28.65410000       0.65300200      -0.82787600       0.37932700      -0.12990200
H        8.84325000       5.25494000      30.30650000       0.70897900       0.40894200      -0.85966700       0.91675100
H        8.73231000       3.86513000      29.31100000       0.73638100       0.11883100      -1.73945100       0.33501600
H        9.55816000       5.58436000      16.72970000       0.65318200      -1.75576400       1.21753400       2.35637700
H        0.47906000       5.65205000      15.83860000       0.67090700       1.21918000      -0.51001800      -1.06372100
H        9.43450000       1.94389000      32.16610000       0.67172900      -2.02214400      -0.11265600       0.95833300
H        0.71411000       2.19370000      32.07310000       0.60801600       0.09974600      -0.40469600      -0.29818600
H        5.42096000       6.46317000      19.29470000       0.65758900      -0.53143500      -0.00524700       1.03148400
H        4.53353000       5.92842000      20.55740000       0.63060300       0.32971200      -1.01219900       0.54376000
H        4.59705000       3.84932000      21.06790000       0.60753200      -0.08591300      -0.60734900      -0.56689500
H        4.56153000       4.80129000      22.23730000       0.63774500      -0.56878400      -0.92400700       0.79050500
H        6.47456000       0.15400000      30.93320000       0.64076400       0.67848100       0.34482800      -0.52699900
H        6.98674000       1.12439000      29.76880000       0.62664400      -0.32938900      -0.52990300       0.21297700
H        1.35924000       3.23548000      22.84960000       0.70750800      -2.20592800       0.28743500       1.80969700
H        2.66219000       3.40372000      21.91980000       0.70198700       1.15843800       1.01646300      -0.40859900
H        7.10179000       1.35455000      26.84460000       0.66315900      -0.59841400       1.27522800       0.41191300
H        7.72190000       1.20432000      25.40000000       0.62124300       0.33610300      -0.13149500       0.85409700
H        2.70896000       7.12709000      28.95610000       0.66247100       2.48527800      -0.65268800      -0.05112300
H        3.49740000       0.46446000      33.03190000       0.58669000      -0.04527400       0.53421300       1.15966900
H        7.15378000       5.58158000      18.84860000       0.65493500      -0.06016000      -0.81868200       0.03465600
H        7.66794000       7.05954000      18.96380000       0.66221800      -0.31580700      -0.17173600      -0.32610900
H        6.28794000       2.79035000      32.07940000       0.67062400       0.83620200      -0.21697000       0.67320200
H        5.03094000       3.14862000      32.89400000       0.55924000       0.12460200       0.09155500       0.49455200
H        2.76051000       1.44156000      15.85300000       0.63388600      -0.87697000       0.59386500      -0.66101800
H        3.93529000       1.71984000      16.93400000       0.66197700      -0.41646500      -0.13263000       0.25950200
H        2.56554000       3.46428000      32.84750000       0.56795400      -0.58656000       0.11356300      -0.97345900
H        3.16330000       2.81905000      31.65760000       0.61472600       1.42025500      -0.81843400      -0.84618100
H        0.39910000       8.70191000      31.91840000       0.68942000      -0.78241000       1.19314900       0.19408900
H        1.50951000       7.58132000      31.69610000       0.57902100      -1.01595100      -0.17509700       0.65907800
H        1.98034000       6.84001000      17.45790000       0.71583800       0.66813800      -1.85514900       2.73320900
H        1.14062000       7.91899000      16.82610000       0.70207200      -1.01450400       1.83401400       0.37052600
H        9.47060000       1.66403000      28.48120000       0.61640900      -0.88546300       0.86348000      -0.22198400
H        9.61375000       1.78413000      29.89810000       0.63795700       0.38336200       0.15875400       1.87525700
H        3.41995000       6.04987000      33.18830000       0.64969300      -0.66101600      -0.51730300       3.12699400
H        4.36493000       6.17393000      32.03330000       0.68617300       1.76743900      -0.14677500      -0.21050200
H        2.58088000       7.57777000      16.26200000       0.71306500       2.16016400       0.93720200      -1.54932200
H        5.74822000       2.74925000      28.24760000       0.50997100       0.51788600       0.51975600      -0.81762900
H        9.53095000       5.15052000      32.92930000       0.61992500       1.54691400      -1.43630500       1.78374800
H        9.32343000       6.39130000      32.12790000       0.59258300      -1.01505300      -0.86930300       0.56701200
H        9.53335000       4.57986000      15.69010000       0.70312500      -0.10648400      -1.39380000      -1.05602500
H        7.15710000       3.52134000      20.18240000       0.60550600      -0.42702900       0.79814100      -0.76676500
H        5.43342000       3.43427000      25.99590000       0.66859300       0.34717500      -0.23912900       1.11289200
H        4.84113000       2.41576000      24.98690000       0.65010600      -0.30731900      -0.21099500      -0.08433900
H        1.56930000       1.91675000      27.58420000       0.66118300       0.66401900      -0.31892300       0.63967000
H        1.17430000       0.66931000      27.04880000       0.70552800      -0.37561300      -1.74916800      -3.29093600
H        9.75674000       5.28908000      27.82220000       0.69483200      -0.93177900       0.06431500       0.39004600
H        0.90110000       4.85011000      27.30090000       0.71627100       2.16491900      -2.21398300      -0.67825700
H        0.16103000       5.97387000      26.43390000       0.71988500       0.07876700       0.10911100      -0.11175000
H        2.94790000       5.53527000      31.76790000       0.71246600      -1.13986600      -2.27224100      -0.86216600
H        8.23328000       2.27633000      16.68780000       0.49643300      -0.48352900       0.28460600       2.11107900
H        0.69050000       7.68769000      33.14220000       0.61097000       0.08076400      -0.32925600       1.23162900
H        6.56660000       7.47033000      24.62140000       0.62902000      -0.64521400       0.23626900      -0.33836300
H        6.75446000       8.27178000      23.31480000       0.63084400      -1.13283500      -0.48074100       0.37549700
H        5.04781000       5.11537000      29.32060000       0.64059000       0.44408000       0.38040900      -0.85178800
H        4.55703000       4.13370000      30.28470000       0.62799000       0.05049000      -0.84763200       0.92671800
H        1.88585000       2.97649000      14.23030000       0.54608500      -0.31601700      -2.10225700      -0.96414100
H        9.62078000       8.47239000      14.52480000       0.69637500      -0.95450800       3.03564900       0.86840300
H        3.35878000       0.78022000      24.63910000       0.66088800      -0.84320900      -0.42319800       0.34496700
H        4.73937000       0.07302000      24.38360000       0.67902200       0.87152100      -1.31322500      -0.05629600
H        4.22180000       0.85101000      31.65640000       0.71645000       2.20291200       0.56662100      -1.04678900
H        3.43144000       8.29573000      31.90060000       0.68142600       0.62895800      -1.98436800      -0.78521500
H        0.56519000       7.56986000      24.71980000       0.64872000      -0.40771700       0.18387500       0.08049100
H       10.14180000       6.51122000      23.69070000       0.63079400      -0.07788300      -0.12713100       0.19559600
H        7.69082000       7.95655000      26.31920000       0.65473200      -0.62558600       0.27859700      -0.07548400
H        8.36673000       6.71712000      25.79820000       0.60311200      -0.35285200      -0.14673100      -0.46644100
240